version 3
run General-0-20241229-13:17:26-2348
attr configname General
attr datetime 20241229-13:17:26
attr datetimef 20241229-131726
attr experiment General
attr inifile mul_simulation.ini
attr iterationvars ""
attr iterationvarsd ""
attr iterationvarsf ""
attr measurement ""
attr network multicast_Network
attr processid 2348
attr repetition 0
attr replication #0
attr resultdir results
attr runnumber 0
attr seedset 0
config image-path ../../inet4.5/images
config network multicast_Network
config total-stack 28MiB
config **.Host_*.forwarding false
config **.Host_*.profileName "\"inet.transportlayer.rtp.RtpAvProfile\""
config **.Host_*.portNumber 5004
config **.Host_*.bandwidth 8000
config **.Host_*.fileName "\"../data/mul_net_frame_increase.mpg.gdf\""
config **.payloadType 32
config **.autoOutputFileNames true
config **.sessionEnterDelay 10s
config **.transmissionStartDelay 10s
config **.transmissionStopDelay 40s
config **.sessionLeaveDelay 10s
config **.Host_*.**.commonName "\"???\""

vector 0 multicast_Network.Host_0.ppp[0].queue queueLength:vector ETV
attr autoWarmupFilter false
attr interpolationmode sample-hold
attr recordingmode vector
attr source "warmup(atomic(constant0(packetPushEnded) + count(packetPushStarted) - count(packetPulled) - count(packetRemoved) - count(packetDropped)))"
attr title "queue length"
attr unit pk
vector 1 multicast_Network.Host_0.ppp[0].queue queueBitLength:vector ETV
attr autoWarmupFilter false
attr interpolationmode sample-hold
attr recordingmode vector
attr source "warmup(atomic(constant0(packetPushEnded) + sum(packetLength(packetPushStarted)) - sum(packetLength(packetPulled)) - sum(packetLength(packetRemoved)) - sum(packetLength(packetDropped))))"
attr title "queue bit length"
attr unit b
vector 2 multicast_Network.Host_0.ppp[0].ppp transmissionState:vector ETV
attr interpolationmode sample-hold
attr recordingmode vector
attr source transmissionStateChanged
attr title "tx state"
vector 3 multicast_Network.Host_0.udp passedUpPk:vector(count) ETV
attr interpolationmode none
attr recordingmode vector(count)
attr source packetSentToUpper
attr title "packets passed up, count"
vector 4 multicast_Network.Host_0.udp droppedPkWrongPort:vector(count) ETV
attr interpolationmode none
attr recordingmode vector(count)
attr source packetDropReasonIsNoPortFound(packetDropped)
attr title "packets dropped (wrong port), count"
vector 5 multicast_Network.Host_0.udp droppedPkBadChecksum:vector(count) ETV
attr interpolationmode none
attr recordingmode vector(count)
attr source packetDropReasonIsIncorrectlyReceived(packetDropped)
attr title "packets dropped (checksum error), count"
vector 6 multicast_Network.Host_1.ppp[0].queue queueLength:vector ETV
attr autoWarmupFilter false
attr interpolationmode sample-hold
attr recordingmode vector
attr source "warmup(atomic(constant0(packetPushEnded) + count(packetPushStarted) - count(packetPulled) - count(packetRemoved) - count(packetDropped)))"
attr title "queue length"
attr unit pk
vector 7 multicast_Network.Host_1.ppp[0].queue queueBitLength:vector ETV
attr autoWarmupFilter false
attr interpolationmode sample-hold
attr recordingmode vector
attr source "warmup(atomic(constant0(packetPushEnded) + sum(packetLength(packetPushStarted)) - sum(packetLength(packetPulled)) - sum(packetLength(packetRemoved)) - sum(packetLength(packetDropped))))"
attr title "queue bit length"
attr unit b
vector 8 multicast_Network.Host_1.ppp[0].ppp transmissionState:vector ETV
attr interpolationmode sample-hold
attr recordingmode vector
attr source transmissionStateChanged
attr title "tx state"
vector 9 multicast_Network.Host_1.udp passedUpPk:vector(count) ETV
attr interpolationmode none
attr recordingmode vector(count)
attr source packetSentToUpper
attr title "packets passed up, count"
vector 10 multicast_Network.Host_1.udp droppedPkWrongPort:vector(count) ETV
attr interpolationmode none
attr recordingmode vector(count)
attr source packetDropReasonIsNoPortFound(packetDropped)
attr title "packets dropped (wrong port), count"
vector 11 multicast_Network.Host_1.udp droppedPkBadChecksum:vector(count) ETV
attr interpolationmode none
attr recordingmode vector(count)
attr source packetDropReasonIsIncorrectlyReceived(packetDropped)
attr title "packets dropped (checksum error), count"
vector 12 multicast_Network.router.ppp[0].queue queueLength:vector ETV
attr autoWarmupFilter false
attr interpolationmode sample-hold
attr recordingmode vector
attr source "warmup(atomic(constant0(packetPushEnded) + count(packetPushStarted) - count(packetPulled) - count(packetRemoved) - count(packetDropped)))"
attr title "queue length"
attr unit pk
vector 13 multicast_Network.router.ppp[0].queue queueBitLength:vector ETV
attr autoWarmupFilter false
attr interpolationmode sample-hold
attr recordingmode vector
attr source "warmup(atomic(constant0(packetPushEnded) + sum(packetLength(packetPushStarted)) - sum(packetLength(packetPulled)) - sum(packetLength(packetRemoved)) - sum(packetLength(packetDropped))))"
attr title "queue bit length"
attr unit b
vector 14 multicast_Network.router.ppp[0].ppp transmissionState:vector ETV
attr interpolationmode sample-hold
attr recordingmode vector
attr source transmissionStateChanged
attr title "tx state"
vector 15 multicast_Network.router.ppp[1].queue queueLength:vector ETV
attr autoWarmupFilter false
attr interpolationmode sample-hold
attr recordingmode vector
attr source "warmup(atomic(constant0(packetPushEnded) + count(packetPushStarted) - count(packetPulled) - count(packetRemoved) - count(packetDropped)))"
attr title "queue length"
attr unit pk
vector 16 multicast_Network.router.ppp[1].queue queueBitLength:vector ETV
attr autoWarmupFilter false
attr interpolationmode sample-hold
attr recordingmode vector
attr source "warmup(atomic(constant0(packetPushEnded) + sum(packetLength(packetPushStarted)) - sum(packetLength(packetPulled)) - sum(packetLength(packetRemoved)) - sum(packetLength(packetDropped))))"
attr title "queue bit length"
attr unit b
vector 17 multicast_Network.router.ppp[1].ppp transmissionState:vector ETV
attr interpolationmode sample-hold
attr recordingmode vector
attr source transmissionStateChanged
attr title "tx state"
vector 18 multicast_Network.Host_0.ppp[0].queue incomingPacketLengths:vector ETV
attr interpolationmode none
attr recordingmode vector
attr source packetLength(packetPushStarted)
attr title "incoming packet lengths"
attr unit b
vector 19 multicast_Network.Host_0.ppp[0].queue queueingTime:vector ETV
attr interpolationmode none
attr recordingmode vector
attr source queueingTime(packetPulled)
attr title "queueing times"
attr unit s
vector 20 multicast_Network.Host_0.ppp[0].queue outgoingPacketLengths:vector ETV
attr interpolationmode none
attr recordingmode vector
attr source packetLength(packetPulled)
attr title "outgoing packet lengths"
attr unit b
vector 21 multicast_Network.Host_0.ppp[0].ppp rcvdPkFromHl:vector(packetBytes) ETV
attr interpolationmode none
attr recordingmode vector(packetBytes)
attr source packetReceivedFromUpper
attr title "packets received from higher layer, packetBytes"
vector 22 multicast_Network.Host_0.ppp[0].ppp txPk:vector(packetBytes) ETV
attr interpolationmode none
attr recordingmode vector(packetBytes)
attr source packetSentToLower
attr title "packets transmitted, packetBytes"
vector 23 multicast_Network.Host_1.ppp[0].queue incomingPacketLengths:vector ETV
attr interpolationmode none
attr recordingmode vector
attr source packetLength(packetPushStarted)
attr title "incoming packet lengths"
attr unit b
vector 24 multicast_Network.Host_1.ppp[0].queue queueingTime:vector ETV
attr interpolationmode none
attr recordingmode vector
attr source queueingTime(packetPulled)
attr title "queueing times"
attr unit s
vector 25 multicast_Network.Host_1.ppp[0].queue outgoingPacketLengths:vector ETV
attr interpolationmode none
attr recordingmode vector
attr source packetLength(packetPulled)
attr title "outgoing packet lengths"
attr unit b
vector 26 multicast_Network.Host_1.ppp[0].ppp rcvdPkFromHl:vector(packetBytes) ETV
attr interpolationmode none
attr recordingmode vector(packetBytes)
attr source packetReceivedFromUpper
attr title "packets received from higher layer, packetBytes"
vector 27 multicast_Network.Host_1.ppp[0].ppp txPk:vector(packetBytes) ETV
attr interpolationmode none
attr recordingmode vector(packetBytes)
attr source packetSentToLower
attr title "packets transmitted, packetBytes"
vector 28 multicast_Network.router.ppp[0].queue incomingPacketLengths:vector ETV
attr interpolationmode none
attr recordingmode vector
attr source packetLength(packetPushStarted)
attr title "incoming packet lengths"
attr unit b
vector 29 multicast_Network.router.ppp[0].queue queueingTime:vector ETV
attr interpolationmode none
attr recordingmode vector
attr source queueingTime(packetPulled)
attr title "queueing times"
attr unit s
vector 30 multicast_Network.router.ppp[0].queue outgoingPacketLengths:vector ETV
attr interpolationmode none
attr recordingmode vector
attr source packetLength(packetPulled)
attr title "outgoing packet lengths"
attr unit b
vector 31 multicast_Network.router.ppp[0].ppp rcvdPkFromHl:vector(packetBytes) ETV
attr interpolationmode none
attr recordingmode vector(packetBytes)
attr source packetReceivedFromUpper
attr title "packets received from higher layer, packetBytes"
vector 32 multicast_Network.router.ppp[0].ppp txPk:vector(packetBytes) ETV
attr interpolationmode none
attr recordingmode vector(packetBytes)
attr source packetSentToLower
attr title "packets transmitted, packetBytes"
vector 33 multicast_Network.router.ppp[1].queue incomingPacketLengths:vector ETV
attr interpolationmode none
attr recordingmode vector
attr source packetLength(packetPushStarted)
attr title "incoming packet lengths"
attr unit b
vector 34 multicast_Network.router.ppp[1].queue queueingTime:vector ETV
attr interpolationmode none
attr recordingmode vector
attr source queueingTime(packetPulled)
attr title "queueing times"
attr unit s
vector 35 multicast_Network.router.ppp[1].queue outgoingPacketLengths:vector ETV
attr interpolationmode none
attr recordingmode vector
attr source packetLength(packetPulled)
attr title "outgoing packet lengths"
attr unit b
vector 36 multicast_Network.router.ppp[1].ppp rcvdPkFromHl:vector(packetBytes) ETV
attr interpolationmode none
attr recordingmode vector(packetBytes)
attr source packetReceivedFromUpper
attr title "packets received from higher layer, packetBytes"
vector 37 multicast_Network.router.ppp[1].ppp txPk:vector(packetBytes) ETV
attr interpolationmode none
attr recordingmode vector(packetBytes)
attr source packetSentToLower
attr title "packets transmitted, packetBytes"
vector 38 multicast_Network.router.ppp[0].ppp rxPkOk:vector(packetBytes) ETV
attr interpolationmode none
attr recordingmode vector(packetBytes)
attr source rxPkOk
attr title "packets received OK, packetBytes"
vector 39 multicast_Network.router.ppp[0].ppp passedUpPk:vector(packetBytes) ETV
attr interpolationmode none
attr recordingmode vector(packetBytes)
attr source packetSentToUpper
attr title "packets passed to higher layer, packetBytes"
vector 40 multicast_Network.Host_1.ppp[0].ppp rxPkOk:vector(packetBytes) ETV
attr interpolationmode none
attr recordingmode vector(packetBytes)
attr source rxPkOk
attr title "packets received OK, packetBytes"
vector 41 multicast_Network.Host_1.ppp[0].ppp passedUpPk:vector(packetBytes) ETV
attr interpolationmode none
attr recordingmode vector(packetBytes)
attr source packetSentToUpper
attr title "packets passed to higher layer, packetBytes"
vector 42 multicast_Network.router.ppp[1].ppp rxPkOk:vector(packetBytes) ETV
attr interpolationmode none
attr recordingmode vector(packetBytes)
attr source rxPkOk
attr title "packets received OK, packetBytes"
vector 43 multicast_Network.router.ppp[1].ppp passedUpPk:vector(packetBytes) ETV
attr interpolationmode none
attr recordingmode vector(packetBytes)
attr source packetSentToUpper
attr title "packets passed to higher layer, packetBytes"
vector 44 multicast_Network.Host_0.ppp[0].ppp rxPkOk:vector(packetBytes) ETV
attr interpolationmode none
attr recordingmode vector(packetBytes)
attr source rxPkOk
attr title "packets received OK, packetBytes"
vector 45 multicast_Network.Host_0.ppp[0].ppp passedUpPk:vector(packetBytes) ETV
attr interpolationmode none
attr recordingmode vector(packetBytes)
attr source packetSentToUpper
attr title "packets passed to higher layer, packetBytes"
vector 46 multicast_Network.Host_1.ppp[0].queue incomingDataRate:vector ETV
attr interpolationmode linear
attr recordingmode vector
attr source throughput(packetPushStarted)
attr title "incoming datarate"
attr unit bps
vector 47 multicast_Network.Host_1.ppp[0].queue outgoingDataRate:vector ETV
attr interpolationmode linear
attr recordingmode vector
attr source throughput(packetPulled)
attr title "outgoing datarate"
attr unit bps
vector 48 multicast_Network.Host_0.ppp[0].queue incomingDataRate:vector ETV
attr interpolationmode linear
attr recordingmode vector
attr source throughput(packetPushStarted)
attr title "incoming datarate"
attr unit bps
vector 49 multicast_Network.Host_0.ppp[0].queue outgoingDataRate:vector ETV
attr interpolationmode linear
attr recordingmode vector
attr source throughput(packetPulled)
attr title "outgoing datarate"
attr unit bps
vector 50 multicast_Network.Host_1.udp packetSent:vector(packetBytes) ETV
attr interpolationmode none
attr recordingmode vector(packetBytes)
attr source packetSent
attr title "packets sent, packetBytes"
vector 51 multicast_Network.Host_1.lo[0].lo rcvdPkFromHl:vector(packetBytes) ETV
attr interpolationmode none
attr recordingmode vector(packetBytes)
attr source packetReceivedFromUpper
attr title "packets received from higher layer, packetBytes"
vector 52 multicast_Network.Host_1.lo[0].lo passedUpPk:vector(packetBytes) ETV
attr interpolationmode none
attr recordingmode vector(packetBytes)
attr source packetSentToUpper
attr title "packets passed to higher layer, packetBytes"
vector 53 multicast_Network.Host_1.udp packetReceived:vector(packetBytes) ETV
attr interpolationmode none
attr recordingmode vector(packetBytes)
attr source packetReceived
attr title "packets received, packetBytes"
vector 54 multicast_Network.Host_1.rtcp packetReceived:vector(packetBytes) ETV
attr interpolationmode none
attr recordingmode vector(packetBytes)
attr source packetReceived
attr title "packets received, packetBytes"
vector 55 multicast_Network.router.ppp[0].queue incomingDataRate:vector ETV
attr interpolationmode linear
attr recordingmode vector
attr source throughput(packetPushStarted)
attr title "incoming datarate"
attr unit bps
vector 56 multicast_Network.router.ppp[0].queue outgoingDataRate:vector ETV
attr interpolationmode linear
attr recordingmode vector
attr source throughput(packetPulled)
attr title "outgoing datarate"
attr unit bps
vector 57 multicast_Network.Host_0.udp packetReceived:vector(packetBytes) ETV
attr interpolationmode none
attr recordingmode vector(packetBytes)
attr source packetReceived
attr title "packets received, packetBytes"
vector 58 multicast_Network.Host_0.rtcp packetReceived:vector(packetBytes) ETV
attr interpolationmode none
attr recordingmode vector(packetBytes)
attr source packetReceived
attr title "packets received, packetBytes"
vector 59 multicast_Network.Host_0.udp packetSent:vector(packetBytes) ETV
attr interpolationmode none
attr recordingmode vector(packetBytes)
attr source packetSent
attr title "packets sent, packetBytes"
vector 60 multicast_Network.Host_0.lo[0].lo rcvdPkFromHl:vector(packetBytes) ETV
attr interpolationmode none
attr recordingmode vector(packetBytes)
attr source packetReceivedFromUpper
attr title "packets received from higher layer, packetBytes"
vector 61 multicast_Network.Host_0.lo[0].lo passedUpPk:vector(packetBytes) ETV
attr interpolationmode none
attr recordingmode vector(packetBytes)
attr source packetSentToUpper
attr title "packets passed to higher layer, packetBytes"
vector 62 multicast_Network.router.ppp[0].ppp packetDropIncorrectlyReceived:vector(packetBytes) ETV
attr interpolationmode none
attr recordingmode vector(packetBytes)
attr source packetDropReasonIsIncorrectlyReceived(packetDropped)
attr title "packet drop: incorrectly received, packetBytes"
vector 63 multicast_Network.router.ppp[1].queue incomingDataRate:vector ETV
attr interpolationmode linear
attr recordingmode vector
attr source throughput(packetPushStarted)
attr title "incoming datarate"
attr unit bps
vector 64 multicast_Network.router.ppp[1].queue outgoingDataRate:vector ETV
attr interpolationmode linear
attr recordingmode vector
attr source throughput(packetPulled)
attr title "outgoing datarate"
attr unit bps
vector 65 multicast_Network.Host_1.rtp packetReceived:vector(packetBytes) ETV
attr interpolationmode none
attr recordingmode vector(packetBytes)
attr source packetReceived
attr title "packets received, packetBytes"
vector 66 multicast_Network.Host_0.rtp packetReceived:vector(packetBytes) ETV
attr interpolationmode none
attr recordingmode vector(packetBytes)
attr source packetReceived
attr title "packets received, packetBytes"
vector 67 multicast_Network.router.ppp[1].ppp packetDropIncorrectlyReceived:vector(packetBytes) ETV
attr interpolationmode none
attr recordingmode vector(packetBytes)
attr source packetDropReasonIsIncorrectlyReceived(packetDropped)
attr title "packet drop: incorrectly received, packetBytes"
vector 68 multicast_Network.Host_0.ppp[0].ppp packetDropIncorrectlyReceived:vector(packetBytes) ETV
attr interpolationmode none
attr recordingmode vector(packetBytes)
attr source packetDropReasonIsIncorrectlyReceived(packetDropped)
attr title "packet drop: incorrectly received, packetBytes"
vector 69 multicast_Network.Host_1.ppp[0].ppp packetDropIncorrectlyReceived:vector(packetBytes) ETV
attr interpolationmode none
attr recordingmode vector(packetBytes)
attr source packetDropReasonIsIncorrectlyReceived(packetDropped)
attr title "packet drop: incorrectly received, packetBytes"
0	0	0	0
0	0	0	0
0	0	0	0
0	0	0	0
0	0	0	0
0	7	0	0
0	46	4.777437355593	0
0	103	12.57223730383	0
0	137	17.284503271248	0
0	272	22.57223730383	0
0	324	22.61223730383	0
0	374	22.65223730383	0
0	418	22.69223730383	0
0	470	22.73223730383	0
0	520	22.77223730383	0
0	564	22.81223730383	0
0	616	22.85223730383	0
0	668	22.89223730383	0
0	699	22.907234274205	0
0	735	22.93223730383	0
0	779	22.97223730383	0
0	831	23.01223730383	0
0	877	23.05223730383	0
0	927	23.09223730383	0
0	971	23.13223730383	0
0	1013	23.17223730383	0
0	1065	23.21223730383	0
0	1117	23.25223730383	0
0	1169	23.29223730383	0
0	1215	23.33223730383	0
0	1267	23.37223730383	0
0	1319	23.41223730383	0
0	1357	23.45223730383	0
0	1399	23.49223730383	0
0	1441	23.53223730383	0
0	1493	23.57223730383	0
0	1535	23.61223730383	0
0	1575	23.65223730383	0
0	1621	23.69223730383	0
0	1667	23.73223730383	0
0	1719	23.77223730383	0
0	1761	23.81223730383	0
0	1813	23.85223730383	0
0	1865	23.89223730383	0
0	1907	23.93223730383	0
0	1949	23.97223730383	0
0	1991	24.01223730383	0
0	2033	24.05223730383	0
0	2085	24.09223730383	0
0	2127	24.13223730383	0
0	2163	24.17223730383	0
0	2203	24.21223730383	0
0	2255	24.25223730383	0
0	2307	24.29223730383	0
0	2359	24.33223730383	0
0	2411	24.37223730383	0
0	2463	24.41223730383	0
0	2515	24.45223730383	0
0	2557	24.49223730383	0
0	2609	24.53223730383	0
0	2655	24.57223730383	0
0	2707	24.61223730383	0
0	2759	24.65223730383	0
0	2805	24.69223730383	0
0	2857	24.73223730383	0
0	2899	24.77223730383	0
0	2945	24.81223730383	0
0	2997	24.85223730383	0
0	3037	24.89223730383	0
0	3079	24.93223730383	0
0	3131	24.97223730383	0
0	3173	25.01223730383	0
0	3219	25.05223730383	0
0	3261	25.09223730383	0
0	3303	25.13223730383	0
0	3345	25.17223730383	0
0	3391	25.21223730383	0
0	3433	25.25223730383	0
0	3485	25.29223730383	0
0	3527	25.33223730383	0
0	3559	25.37223730383	0
0	3599	25.41223730383	0
0	3651	25.45223730383	0
0	3697	25.49223730383	0
0	3729	25.53223730383	0
0	3781	25.57223730383	0
0	3827	25.61223730383	0
0	3873	25.65223730383	0
0	3905	25.69223730383	0
0	3957	25.73223730383	0
0	3993	25.77223730383	0
0	4033	25.81223730383	0
0	4065	25.85223730383	0
0	4097	25.89223730383	0
0	4143	25.93223730383	0
0	4185	25.97223730383	0
0	4231	26.01223730383	0
0	4273	26.05223730383	0
0	4323	26.09223730383	0
0	4378	26.13223730383	0
0	4430	26.17223730383	0
0	4476	26.21223730383	0
0	4512	26.25223730383	0
0	4544	26.29223730383	0
0	4586	26.33223730383	0
0	4638	26.37223730383	0
0	4674	26.41223730383	0
0	4706	26.45223730383	0
0	4748	26.49223730383	0
0	4790	26.53223730383	0
0	4836	26.57223730383	0
0	4878	26.61223730383	0
0	4920	26.65223730383	0
0	4972	26.69223730383	0
0	5024	26.73223730383	0
0	5066	26.77223730383	0
0	5106	26.81223730383	0
0	5138	26.85223730383	0
0	5184	26.89223730383	0
0	5226	26.93223730383	0
0	5268	26.97223730383	0
0	5310	27.01223730383	0
0	5342	27.05223730383	0
0	5388	27.09223730383	0
0	5440	27.13223730383	0
0	5482	27.17223730383	0
0	5524	27.21223730383	0
0	5560	27.25223730383	0
0	5602	27.29223730383	0
0	5644	27.33223730383	0
0	5676	27.37223730383	0
0	5722	27.41223730383	0
0	5758	27.45223730383	0
0	5800	27.49223730383	0
0	5846	27.53223730383	0
0	5882	27.57223730383	0
0	5924	27.61223730383	0
0	5956	27.65223730383	0
0	5996	27.69223730383	0
0	6028	27.73223730383	0
0	6064	27.77223730383	0
0	6110	27.81223730383	0
0	6156	27.85223730383	0
0	6188	27.89223730383	0
0	6240	27.93223730383	0
0	6276	27.97223730383	0
0	6308	28.01223730383	0
0	6344	28.05223730383	0
0	6376	28.09223730383	0
0	6422	28.13223730383	0
0	6468	28.17223730383	0
0	6508	28.21223730383	0
0	6560	28.25223730383	0
0	6606	28.29223730383	0
0	6642	28.33223730383	0
0	6684	28.37223730383	0
0	6736	28.41223730383	0
0	6788	28.45223730383	0
0	6820	28.49223730383	0
0	6866	28.53223730383	0
0	6908	28.57223730383	0
0	6944	28.61223730383	0
0	6990	28.65223730383	0
0	7007	28.662678745956	0
0	7043	28.69223730383	0
0	7075	28.73223730383	0
0	7111	28.77223730383	0
0	7143	28.81223730383	0
0	7175	28.85223730383	0
0	7211	28.89223730383	0
0	7253	28.93223730383	0
0	7295	28.97223730383	0
0	7341	29.01223730383	0
0	7373	29.05223730383	0
0	7405	29.09223730383	0
0	7454	29.13223730383	0
0	7486	29.17223730383	0
0	7528	29.21223730383	0
0	7560	29.25223730383	0
0	7600	29.29223730383	0
0	7636	29.33223730383	0
0	7678	29.37223730383	0
0	7714	29.41223730383	0
0	7756	29.45223730383	0
0	7802	29.49223730383	0
0	7834	29.53223730383	0
0	7866	29.57223730383	0
0	7902	29.61223730383	0
0	7934	29.65223730383	0
0	7966	29.69223730383	0
0	7998	29.73223730383	0
0	8040	29.77223730383	0
0	8076	29.81223730383	0
0	8112	29.85223730383	0
0	8148	29.89223730383	0
0	8190	29.93223730383	0
0	8232	29.97223730383	0
0	8272	30.01223730383	0
0	8304	30.05223730383	0
0	8340	30.09223730383	0
0	8376	30.13223730383	0
0	8412	30.17223730383	0
0	8454	30.21223730383	0
0	8490	30.25223730383	0
0	8522	30.29223730383	0
0	8558	30.33223730383	0
0	8600	30.37223730383	0
0	8636	30.41223730383	0
0	8672	30.45223730383	0
0	8704	30.49223730383	0
0	8736	30.53223730383	0
0	8778	30.57223730383	0
0	8810	30.61223730383	0
0	8842	30.65223730383	0
0	8874	30.69223730383	0
0	8910	30.73223730383	0
0	8946	30.77223730383	0
0	8978	30.81223730383	0
0	9020	30.85223730383	0
0	9052	30.89223730383	0
0	9098	30.93223730383	0
0	9134	30.97223730383	0
0	9176	31.01223730383	0
0	9208	31.05223730383	0
0	9254	31.09223730383	0
0	9296	31.13223730383	0
0	9328	31.17223730383	0
0	9370	31.21223730383	0
0	9416	31.25223730383	0
0	9448	31.29223730383	0
0	9490	31.33223730383	0
0	9532	31.37223730383	0
0	9574	31.41223730383	0
0	9610	31.45223730383	0
0	9652	31.49223730383	0
0	9688	31.53223730383	0
0	9724	31.57223730383	0
0	9766	31.61223730383	0
0	9802	31.65223730383	0
0	9838	31.69223730383	0
0	9870	31.73223730383	0
0	9902	31.77223730383	0
0	9934	31.81223730383	0
0	9970	31.85223730383	0
0	10010	31.89223730383	0
0	10052	31.93223730383	0
0	10084	31.97223730383	0
0	10116	32.01223730383	0
0	10148	32.05223730383	0
0	10180	32.09223730383	0
0	10216	32.13223730383	0
0	10248	32.17223730383	0
0	10284	32.21223730383	0
0	10316	32.25223730383	0
0	10348	32.29223730383	0
0	10380	32.33223730383	0
0	10416	32.37223730383	0
0	10448	32.41223730383	0
0	10484	32.45223730383	0
0	10520	32.49223730383	0
0	10556	32.53223730383	0
0	10588	32.57223730383	0
0	10630	32.61223730383	0
0	10662	32.65223730383	0
0	10698	32.69223730383	0
0	10740	32.73223730383	0
0	10772	32.77223730383	0
0	10808	32.81223730383	0
0	10840	32.85223730383	0
0	10872	32.89223730383	0
0	10914	32.93223730383	0
0	10946	32.97223730383	0
0	10978	33.01223730383	0
0	11020	33.05223730383	0
0	11056	33.09223730383	0
0	11098	33.13223730383	0
0	11134	33.17223730383	0
0	11170	33.21223730383	0
0	11202	33.25223730383	0
0	11248	33.29223730383	0
0	11290	33.33223730383	0
0	11301	33.339241262317	1
0	11309	33.34364530383	0
0	11347	33.37223730383	0
0	11379	33.41223730383	0
0	11421	33.45223730383	0
0	11453	33.49223730383	0
0	11485	33.53223730383	0
0	11527	33.57223730383	0
0	11563	33.61223730383	0
0	11595	33.65223730383	0
0	11627	33.69223730383	0
0	11659	33.73223730383	0
0	11695	33.77223730383	0
0	11731	33.81223730383	0
0	11763	33.85223730383	0
0	11805	33.89223730383	0
0	11837	33.93223730383	0
0	11873	33.97223730383	0
0	11909	34.01223730383	0
0	11945	34.05223730383	0
0	11987	34.09223730383	0
0	12019	34.13223730383	0
0	12055	34.17223730383	0
0	12091	34.21223730383	0
0	12123	34.25223730383	0
0	12155	34.29223730383	0
0	12187	34.33223730383	0
0	12236	34.37223730383	0
0	12268	34.41223730383	0
0	12310	34.45223730383	0
0	12346	34.49223730383	0
0	12382	34.53223730383	0
0	12414	34.57223730383	0
0	12450	34.61223730383	0
0	12482	34.65223730383	0
0	12518	34.69223730383	0
0	12550	34.73223730383	0
0	12586	34.77223730383	0
0	12622	34.81223730383	0
0	12654	34.85223730383	0
0	12686	34.89223730383	0
0	12722	34.93223730383	0
0	12758	34.97223730383	0
0	12800	35.01223730383	0
0	12836	35.05223730383	0
0	12872	35.09223730383	0
0	12908	35.13223730383	0
0	12940	35.17223730383	0
0	12976	35.21223730383	0
0	13008	35.25223730383	0
0	13044	35.29223730383	0
0	13080	35.33223730383	0
0	13112	35.37223730383	0
0	13144	35.41223730383	0
0	13180	35.45223730383	0
0	13212	35.49223730383	0
0	13248	35.53223730383	0
0	13280	35.57223730383	0
0	13312	35.61223730383	0
0	13344	35.65223730383	0
0	13376	35.69223730383	0
0	13412	35.73223730383	0
0	13444	35.77223730383	0
0	13476	35.81223730383	0
0	13508	35.85223730383	0
0	13544	35.89223730383	0
0	13580	35.93223730383	0
0	13612	35.97223730383	0
0	13644	36.01223730383	0
0	13676	36.05223730383	0
0	13708	36.09223730383	0
0	13744	36.13223730383	0
0	13776	36.17223730383	0
0	13808	36.21223730383	0
0	13844	36.25223730383	0
0	13890	36.29223730383	0
0	13922	36.33223730383	0
0	13958	36.37223730383	0
0	13990	36.41223730383	0
0	14022	36.45223730383	0
0	14062	36.49223730383	0
0	14098	36.53223730383	0
0	14130	36.57223730383	0
0	14149	36.608425135449	0
0	14183	36.61223730383	0
0	14215	36.65223730383	0
0	14261	36.69223730383	0
0	14293	36.73223730383	0
0	14329	36.77223730383	0
0	14365	36.81223730383	0
0	14380	36.828587234757	0
0	14408	36.85223730383	0
0	14444	36.89223730383	0
0	14486	36.93223730383	0
0	14522	36.97223730383	0
0	14554	37.01223730383	0
0	14586	37.05223730383	0
0	14618	37.09223730383	0
0	14654	37.13223730383	0
0	14690	37.17223730383	0
0	14726	37.21223730383	0
0	14762	37.25223730383	0
0	14794	37.29223730383	0
0	14826	37.33223730383	0
0	14858	37.37223730383	0
0	14890	37.41223730383	0
0	14926	37.45223730383	0
0	14962	37.49223730383	0
0	14994	37.53223730383	0
0	15026	37.57223730383	0
0	15062	37.61223730383	0
0	15098	37.65223730383	0
0	15130	37.69223730383	0
0	15162	37.73223730383	0
0	15194	37.77223730383	0
0	15230	37.81223730383	0
0	15262	37.85223730383	0
0	15294	37.89223730383	0
0	15336	37.93223730383	0
0	15368	37.97223730383	0
0	15400	38.01223730383	0
0	15432	38.05223730383	0
0	15468	38.09223730383	0
0	15500	38.13223730383	0
0	15532	38.17223730383	0
0	15564	38.21223730383	0
0	15600	38.25223730383	0
0	15636	38.29223730383	0
0	15668	38.33223730383	0
0	15704	38.37223730383	0
0	15736	38.41223730383	0
0	15768	38.45223730383	0
0	15800	38.49223730383	0
0	15836	38.53223730383	0
0	15868	38.57223730383	0
0	15910	38.61223730383	0
0	15942	38.65223730383	0
0	15978	38.69223730383	0
0	16010	38.73223730383	0
0	16046	38.77223730383	0
0	16086	38.81223730383	0
0	16118	38.85223730383	0
0	16150	38.89223730383	0
0	16182	38.93223730383	0
0	16214	38.97223730383	0
0	16246	39.01223730383	0
0	16278	39.05223730383	0
0	16314	39.09223730383	0
0	16350	39.13223730383	0
0	16382	39.17223730383	0
0	16414	39.21223730383	0
0	16450	39.25223730383	0
0	16513	39.29223730383	0
0	16545	39.33223730383	0
0	16577	39.37223730383	0
0	16609	39.41223730383	0
0	16641	39.45223730383	0
0	16683	39.49223730383	0
0	16715	39.53223730383	0
0	16747	39.57223730383	0
0	16762	39.59525697953	0
0	16796	39.61223730383	0
0	16838	39.65223730383	0
0	16874	39.69223730383	0
0	16906	39.73223730383	0
0	16938	39.77223730383	0
0	16970	39.81223730383	0
0	17023	39.85223730383	0
0	17055	39.89223730383	0
0	17087	39.93223730383	0
0	17119	39.97223730383	0
0	17151	40.01223730383	0
0	17183	40.05223730383	0
0	17215	40.09223730383	0
0	17251	40.13223730383	0
0	17283	40.17223730383	0
0	17315	40.21223730383	0